//mumax 3.10 [windows_amd64 go1.11.6(gc) CUDA-11.0]
//GPU info: NVIDIA GeForce RTX 2050(4095MB), CUDA Driver 12.3, cc=8.6, using cc=80 PTX
//(c) Arne Vansteenkiste, Dynamat LAB, Ghent University, Belgium
//This is free software without any warranty. See license.txt
//********************************************************************//
//  If you use mumax in any work or publication,                      //
//  we kindly ask you to cite the references in references.bib        //
//********************************************************************//
//output directory: stp3_vor.out/
N := 64
setgridsize(N, N, N)
Lmin := 8.0
Lmax := 9.0
Lstep := 0.05
L := Lmin
setcellsize(L/N, L/N, L/N)
Msat = sqrt(2 / mu0)
Aex = 1.0
Ku1 = 0.1
anisU = vector(1, 0, 0)
m = vortex(1, -1)
tableadd(E_total)
tableaddvar(L, "L", "")
for L = Lmin; L <= Lmax; L += Lstep {
	setcellsize(L/N, L/N, L/N)
	minimize()
	tablesave()
}
//resizing...
//resizing...
//resizing...
//resizing...
//resizing...
//resizing...
//resizing...
//resizing...
//resizing...
//resizing...
//resizing...
//resizing...
//resizing...
//resizing...
//resizing...
//resizing...
//resizing...
//resizing...
//resizing...
//resizing...
//********************************************************************//
//Please cite the following references, relevant for your simulation. //
//See bibtex file in output folder for justification.                 //
//********************************************************************//
//   * Vansteenkiste et al., AIP Adv. 4, 107133 (2014).
//   * Exl et al., J. Appl. Phys. 115, 17D118 (2014).
