//mumax 3.10 [windows_amd64 go1.11.6(gc) CUDA-11.0]
//GPU info: NVIDIA GeForce RTX 2050(4095MB), CUDA Driver 12.3, cc=8.6, using cc=80 PTX
//(c) Arne Vansteenkiste, Dynamat LAB, Ghent University, Belgium
//This is free software without any warranty. See license.txt
//********************************************************************//
//  If you use mumax in any work or publication,                      //
//  we kindly ask you to cite the references in references.bib        //
//********************************************************************//
//output directory: stp4.out/
SetGridsize(128, 32, 1)
SetCellsize(500e-9/128, 125e-9/32, 3e-9)
Msat = 800e3
Aex = 13e-12
alpha = 0.02
m = uniform(1, .1, 0)
relax()
save(m)
tableadd(maxangle)
autosave(m, 200e-12)
tableautosave(10e-12)
B_ext = vector(-24.6E-3, 4.3E-3, 0)
run(1e-9)
//********************************************************************//
//Please cite the following references, relevant for your simulation. //
//See bibtex file in output folder for justification.                 //
//********************************************************************//
//   * Vansteenkiste et al., AIP Adv. 4, 107133 (2014).
